LAMMPS (23 Oct 2017)
  using 4 OpenMP thread(s) per MPI task

variable temp_lower equal 10.
variable temp_anneal equal 1400.
variable temp_upper equal 3500.
variable massvar 	equal 28.09

variable unit_cell equal 6
variable eng_cell_k equal 1
variable i_max equal 1

variable i loop ${i_max}
variable i loop 1
variable ekin equal 1500
variable vel equal "(2*1.602*10^(-19.) * v_ekin/(v_massvar*1.6605*10^(-27)))^(1./2.) / 100."

variable v0 equal ${vel}
variable v0 equal 1015.07135821103
print "Velocity v: ${v0}"
Velocity v: 1015.07135821103

variable cell_size	equal "floor((((v_ekin*v_i_max*v_eng_cell_k)/8.)^(1./3.)) + v_unit_cell) + 1"
print "Cell_size a: ${cell_size}"
Cell_size a: 12

variable seed equal 10516


units 		metal
boundary 	p p p

lattice			diamond 5.432
Lattice spacing in x,y,z = 5.432 5.432 5.432

variable box_min equal "v_cell_size * -0.2"
variable box_max equal "v_cell_size * 1.3"

read_data deform.dat #add merge
  orthogonal box = (5.50686 5.50686 -9.3994) to (97.7011 97.7011 112.607)
  2 by 2 by 2 MPI processor grid
  reading atoms ...
  54872 atoms
  reading velocities ...
  54872 velocities

variable tmp equal "lx"
variable L0 equal ${tmp}
variable L0 equal 92.1942891835847
print "Initial Length, L0: ${L0}"
Initial Length, L0: 92.1942891835847

neighbor 		0.3 bin
neigh_modify	delay 1

#use Tersoff Potential
mass			* 28.09
#pair_style		tersoff
#pair_coeff		* * Si.tersoff Si

pair_style		sw
pair_coeff		* * Si.sw Si
Reading potential file Si.sw with DATE: 2007-06-11

variable therstat_damp equal 0.1
variable barostat_damp equal 0.4

reset_timestep 0
timestep		0.001

fix 			1 all npt temp ${temp_lower} ${temp_lower} ${therstat_damp} z 0.0 0.0 ${barostat_damp}
fix 			1 all npt temp 10 ${temp_lower} ${therstat_damp} z 0.0 0.0 ${barostat_damp}
fix 			1 all npt temp 10 10 ${therstat_damp} z 0.0 0.0 ${barostat_damp}
fix 			1 all npt temp 10 10 0.1 z 0.0 0.0 ${barostat_damp}
fix 			1 all npt temp 10 10 0.1 z 0.0 0.0 0.4

thermo_style 	custom step lx ly lz press pxx pyy pzz pe atoms temp dt
thermo			100
thermo_modify	lost ignore flush yes

variable strainx equal "(lx - v_L0)/v_L0"
variable strainy equal "(ly - v_L0)/v_L0"
variable p1 equal "v_strainx"
variable p2 equal "v_strainy"
#Pressure in GPa
variable p3 equal "-pxx/10000"
variable p4 equal "-pyy/10000"
variable p5 equal "-pzz/10000"
variable st equal "step"
variable at equal "atoms"
variable tst equal "dt"
variable tem equal "temp"
variable LX equal "lx"
variable LY equal "ly"
variable LZ equal "lz"
fix def1 all print 500 "${st} ${p1} ${p2} ${p3} ${p4} ${p5} ${at} ${tst} ${tem} ${LX} ${LY} ${LZ}" file recoil1.txt screen no

dump 1 all atom 200 dump_recoil

#thermostat parameters
#variable therstat_seed equal 23145
#variable therstat_damp equal 0.5
#fix	5 all temp/berendsen ${temp_lower} ${temp_lower} ${therstat_damp}


run 500
Neighbor list info ...
  update every 1 steps, delay 1 steps, check yes
  max neighbors/atom: 2000, page size: 100000
  master list distance cutoff = 4.07118
  ghost atom cutoff = 4.07118
  binsize = 2.03559, bins = 46 46 60
  1 neighbor lists, perpetual/occasional/extra = 1 0 0
  (1) pair sw, perpetual
      attributes: full, newton on
      pair build: full/bin/atomonly
      stencil: full/bin/3d
      bin: standard
Per MPI rank memory allocation (min/avg/max) = 7.406 | 7.406 | 7.407 Mbytes
Step Lx Ly Lz Press Pxx Pyy Pzz PotEng Atoms Temp Dt 
       0    92.194289    92.194289    122.00679    16222.027    24652.562    24015.623   -2.1050022   -223978.42    54872    10.696337        0.001 
     100    92.194289    92.194289    122.00766     16229.14    24634.235    24050.532    2.6546771   -223979.75    54872    10.603475        0.001 
     200    92.194289    92.194289     122.0074    16223.638    24632.583    24037.949   0.38099083   -223981.09    54872    10.426988        0.001 
     300    92.194289    92.194289    122.01128     16167.24    24512.431    23994.668   -5.3798201   -223982.17    54872    10.231549        0.001 
     400    92.194289    92.194289    122.00457    16239.623     24653.14    24063.688    2.0398614   -223983.24    54872    10.095146        0.001 
     500    92.194289    92.194289    122.00735    16221.018    24657.852    24000.371    4.8302236   -223984.09    54872      10.0085        0.001 
Loop time of 58.6034 on 32 procs for 500 steps with 54872 atoms

Performance: 0.737 ns/day, 32.557 hours/ns, 8.532 timesteps/s
99.2% CPU use with 8 MPI tasks x 4 OpenMP threads

MPI task timing breakdown:
Section |  min time  |  avg time  |  max time  |%varavg| %total
---------------------------------------------------------------
Pair    | 38.023     | 38.49      | 38.908     |   5.2 | 65.68
Neigh   | 0.084037   | 0.08448    | 0.084951   |   0.1 |  0.14
Comm    | 0.2878     | 0.70861    | 1.1743     |  38.7 |  1.21
Output  | 0.026228   | 0.026375   | 0.027389   |   0.2 |  0.05
Modify  | 18.878     | 18.924     | 18.94      |   0.4 | 32.29
Other   |            | 0.3697     |            |       |  0.63

Nlocal:    6859 ave 6884 max 6833 min
Histogram: 1 1 0 1 1 0 2 1 0 1
Nghost:    3907.88 ave 3942 max 3877 min
Histogram: 1 0 2 1 0 2 0 1 0 1
Neighs:    0 ave 0 max 0 min
Histogram: 8 0 0 0 0 0 0 0 0 0
FullNghs:  105302 ave 105965 max 104841 min
Histogram: 2 0 2 0 1 0 2 0 0 1

Total # of neighbors = 842414
Ave neighs/atom = 15.3523
Neighbor list builds = 6
Dangerous builds = 0
#unfix 5

################# Thermostat and Zero Force Border #####################

variable therstat_width equal 3.0


variable xl equal "xlo"
variable xh equal "xhi"
variable xth equal "xlo + v_therstat_width"

variable yl equal "ylo"
variable yh equal "yhi"
variable yth equal "ylo + v_therstat_width"

variable zl equal "zlo"
variable zh equal "zhi"
variable zth equal "zlo + v_therstat_width"

#xy
region	   therstat_xy block ${xl} ${xh} ${yl} ${yh} ${zl} ${zth} units box
region	   therstat_xy block 5.50685540820766 ${xh} ${yl} ${yh} ${zl} ${zth} units box
region	   therstat_xy block 5.50685540820766 97.7011445917924 ${yl} ${yh} ${zl} ${zth} units box
region	   therstat_xy block 5.50685540820766 97.7011445917924 5.50685540820766 ${yh} ${zl} ${zth} units box
region	   therstat_xy block 5.50685540820766 97.7011445917924 5.50685540820766 97.7011445917924 ${zl} ${zth} units box
region	   therstat_xy block 5.50685540820766 97.7011445917924 5.50685540820766 97.7011445917924 -9.39967581845385 ${zth} units box
region	   therstat_xy block 5.50685540820766 97.7011445917924 5.50685540820766 97.7011445917924 -9.39967581845385 -6.39967581845385 units box
group	   therstat_xy_group dynamic all region therstat_xy every 10
dynamic group therstat_xy_group defined

#xz
region	   therstat_xz block ${xl} ${xh} ${yl} ${yth} ${zl} ${zh} units box
region	   therstat_xz block 5.50685540820766 ${xh} ${yl} ${yth} ${zl} ${zh} units box
region	   therstat_xz block 5.50685540820766 97.7011445917924 ${yl} ${yth} ${zl} ${zh} units box
region	   therstat_xz block 5.50685540820766 97.7011445917924 5.50685540820766 ${yth} ${zl} ${zh} units box
region	   therstat_xz block 5.50685540820766 97.7011445917924 5.50685540820766 8.50685540820766 ${zl} ${zh} units box
region	   therstat_xz block 5.50685540820766 97.7011445917924 5.50685540820766 8.50685540820766 -9.39967581845385 ${zh} units box
region	   therstat_xz block 5.50685540820766 97.7011445917924 5.50685540820766 8.50685540820766 -9.39967581845385 112.607675818456 units box
group	   therstat_xz_group dynamic all region therstat_xz every 10
dynamic group therstat_xz_group defined

#yz
region     therstat_yz block ${xl} ${xth} ${yl} ${yh} ${zl} ${zh} units box
region     therstat_yz block 5.50685540820766 ${xth} ${yl} ${yh} ${zl} ${zh} units box
region     therstat_yz block 5.50685540820766 8.50685540820766 ${yl} ${yh} ${zl} ${zh} units box
region     therstat_yz block 5.50685540820766 8.50685540820766 5.50685540820766 ${yh} ${zl} ${zh} units box
region     therstat_yz block 5.50685540820766 8.50685540820766 5.50685540820766 97.7011445917924 ${zl} ${zh} units box
region     therstat_yz block 5.50685540820766 8.50685540820766 5.50685540820766 97.7011445917924 -9.39967581845385 ${zh} units box
region     therstat_yz block 5.50685540820766 8.50685540820766 5.50685540820766 97.7011445917924 -9.39967581845385 112.607675818456 units box
group	   therstat_yz_group dynamic all region therstat_yz every 10
dynamic group therstat_yz_group defined


fix	    51 therstat_xy_group temp/berendsen ${temp_lower} ${temp_lower} ${therstat_damp}
fix	    51 therstat_xy_group temp/berendsen 10 ${temp_lower} ${therstat_damp}
fix	    51 therstat_xy_group temp/berendsen 10 10 ${therstat_damp}
fix	    51 therstat_xy_group temp/berendsen 10 10 0.1
fix	    52 therstat_xz_group temp/berendsen ${temp_lower} ${temp_lower} ${therstat_damp}
fix	    52 therstat_xz_group temp/berendsen 10 ${temp_lower} ${therstat_damp}
fix	    52 therstat_xz_group temp/berendsen 10 10 ${therstat_damp}
fix	    52 therstat_xz_group temp/berendsen 10 10 0.1
fix	    53 therstat_yz_group temp/berendsen ${temp_lower} ${temp_lower} ${therstat_damp}
fix	    53 therstat_yz_group temp/berendsen 10 ${temp_lower} ${therstat_damp}
fix	    53 therstat_yz_group temp/berendsen 10 10 ${therstat_damp}
fix	    53 therstat_yz_group temp/berendsen 10 10 0.1


####################### Recoil Insertion ###############################
variable tmp2 equal "atoms"

variable x_max equal 0.01 # A
variable dt_min equal 0.00001 #ps
variable dt_max equal 10 #ps

fix 11 all dt/reset 1 ${dt_min} ${dt_max} ${x_max} units box
fix 11 all dt/reset 1 1e-05 ${dt_max} ${x_max} units box
fix 11 all dt/reset 1 1e-05 10 ${x_max} units box
fix 11 all dt/reset 1 1e-05 10 0.01 units box
variable dt_new equal "v_x_max/v_vel"


#Start loop

label loop
#dump 1 all atom 100 testfile.$i


### Calculate velocity components

# This FIRST random seed is used for all the following random nr. calculations!!!!

variable th_max  equal "2*PI"


variable theta 	equal random(0,${th_max},${seed})
variable theta 	equal random(0,6.28318530717959,${seed})
variable theta 	equal random(0,6.28318530717959,10516)
variable u   	equal random(-1,1,${seed})
variable u   	equal random(-1,1,10516)

variable th_tmp equal ${theta}
variable th_tmp equal 1.06723455105997
variable u_tmp equal ${u}
variable u_tmp equal 0.849565863609314


variable vx equal "v_vel * (1- v_u_tmp * v_u_tmp)^(0.5)*cos(v_th_tmp)"
# this random seed is NOT used
variable vy equal "v_vel*(1- v_u_tmp * v_u_tmp)^(0.5)*sin(v_th_tmp)"
variable vz equal "v_vel* v_u_tmp"
print "Velocity vx: ${vx}"
Velocity vx: 258.371979032001
print "Velocity vy: ${vy}"
Velocity vy: 468.968878306676
print "Velocity vz: ${vz}"
Velocity vz: 862.369975063633

#choose random atom - this random seed is NOT used
variable rn_id equal floor(random(0,${tmp2},${seed}))
variable rn_id equal floor(random(0,54872,${seed}))
variable rn_id equal floor(random(0,54872,10516))
variable a equal ${rn_id}
variable a equal 6225
print "Random id: ${a}"
Random id: 6225

#define group that contains the chosen atom
group ${i} id ${a}
group 1 id ${a}
group 1 id 6225
1 atoms in group 1
velocity ${i} set ${vx} ${vy} ${vz} units box
velocity 1 set ${vx} ${vy} ${vz} units box
velocity 1 set 258.371979032001 ${vy} ${vz} units box
velocity 1 set 258.371979032001 468.968878306676 ${vz} units box
velocity 1 set 258.371979032001 468.968878306676 862.369975063633 units box


#reset_timestep 0
#timestep	${dt_new}

run 10000
Per MPI rank memory allocation (min/avg/max) = 7.406 | 7.406 | 7.407 Mbytes
Step Lx Ly Lz Press Pxx Pyy Pzz PotEng Atoms Temp Dt 
     500    92.194289    92.194289    122.00735    17765.839    24958.109    24989.596    3349.8134   -223984.09    54872      221.477        1e-05 
     600    92.194289    92.194289    122.02469    17468.733    24732.125    24770.362    2903.7118   -223980.93    54872    220.49836        1e-05 
     700    92.194289    92.194289    122.07178    16682.848    24139.001    24188.925    1720.6194   -223975.54    54872    218.56155        1e-05 
     800    92.194289    92.194289    122.13614     15622.46    23364.194    23398.462    104.72419    -223964.5    54872    215.92523        1e-05 
     900    92.194289    92.194289    122.20043    14563.508    22538.146    22599.126   -1446.7469   -223953.48    54872    213.32035 1.0045828e-05 
    1000    92.194289    92.194289    122.24835    13839.264    22136.939    22024.537    -2643.685   -223889.35    54872    203.12609 1.032082e-05 
    1100    92.194289    92.194289    122.26607    13509.091    22556.545    21462.733   -3492.0047   -223916.83    54872    205.76834  1.04586e-05 
    1200    92.194289    92.194289    122.24496     13875.93    22613.076    21981.111   -2966.3977   -223902.28    54872    202.28272 1.0605022e-05 
    1300    92.194289    92.194289    122.18896    14859.371     23380.52    22505.388   -1307.7962    -223883.7    54872    198.17147 1.1110708e-05 
    1400    92.194289    92.194289    122.11939    16065.635    24344.966    23372.998    478.94197   -223892.49    54872     197.8799 1.1239012e-05 
    1500    92.194289    92.194289    122.06117    17050.892    24836.022    24086.236     2230.419   -223911.58    54872    199.06379 1.1250094e-05 
    1600    92.194289    92.194289    122.03351    17767.882    26340.013    25259.705    1703.9271   -223726.66    54872    171.44205 1.7180152e-05 
    1700    92.194289    92.194289    122.04618    17378.586    25827.541    24912.743    1395.4756   -223912.46    54872    195.52736 1.4956616e-05 
    1800    92.194289    92.194289     122.0872    16722.817    25224.122    24425.834    518.49409   -223910.95    54872    193.10138 1.5045276e-05 
    1900    92.194289    92.194289    122.13484    15963.596    24657.658    23773.736   -540.60648   -223916.54    54872    191.67165 1.5099381e-05 
    2000    92.194289    92.194289    122.16585    15506.633     24314.86     23373.55    -1168.512    -223902.4    54872    187.45543 1.5215257e-05 
    2100    92.194289    92.194289    122.16817    15619.595    24361.874    23845.935   -1349.0251   -223807.69    54872     171.9544 1.5399209e-05 
    2200    92.194289    92.194289    122.13908    16050.858    24574.401    24466.893   -888.71859   -223892.86    54872    181.76281 1.5756076e-05 
    2300    92.194289    92.194289    122.09215    16859.284    25032.691    25054.326    490.83505    -223898.8    54872    180.28638 1.5882622e-05 
    2400    92.194289    92.194289    122.06089    17432.702    25500.479    25409.868    1387.7586   -223877.69    54872    175.04138 1.5865426e-05 
    2500    92.194289    92.194289    122.06524    17401.363    25491.368    25425.261    1287.4618   -223861.75    54872    170.54864 1.6037733e-05 
    2600    92.194289    92.194289    122.10156    16872.947    25330.089    24871.468    417.28498    -223803.4    54872    160.06924 1.7061291e-05 
    2700    92.194289    92.194289    122.15532    15996.637    24833.994    24081.961   -926.04448   -223828.29    54872     161.1693 1.9568354e-05 
    2800    92.194289    92.194289    122.17096    15739.785    24509.331    23909.996   -1199.9724   -223849.41    54872    161.61441 1.916625e-05 
    2900    92.194289    92.194289    122.14399    16291.325    24878.234    24301.284   -305.54374    -223794.9    54872    151.36363 2.043222e-05 
    3000    92.194289    92.194289    122.10506    17011.026    25620.437    24767.238    645.40251   -223793.39    54872     148.6098 2.0881646e-05 
    3100    92.194289    92.194289    122.09456     17269.97    25856.897    25107.479     845.5343   -223748.95    54872    139.84645 2.0933863e-05 
    3200    92.194289    92.194289    122.11977    16902.656    25478.152     24966.25    263.56661   -223757.61    54872    138.64792 2.2809843e-05 
    3300    92.194289    92.194289    122.15556    16302.474    24993.448    24472.109   -558.13694   -223791.28    54872    140.76964 2.276461e-05 
    3400    92.194289    92.194289     122.1624    16250.653    25061.351    24431.689   -741.08286   -223777.01    54872    136.15301 2.2800654e-05 
    3500    92.194289    92.194289    122.13482    16819.998    25511.391     24828.11     120.4934   -223730.17    54872    127.06254 2.303314e-05 
    3600    92.194289    92.194289    122.11429    17235.907    25844.443    25130.903    732.37516   -223714.93    54872    122.59251 2.3151649e-05 
    3700    92.194289    92.194289    122.12977      17027.2    25732.836    25071.602    277.16105   -223717.89    54872    120.72792 2.3469652e-05 
    3800    92.194289    92.194289    122.15899    16614.127    25471.011    24758.193   -386.82279   -223686.82    54872    114.03487 2.6134954e-05 
    3900    92.194289    92.194289    122.16702    16564.908    25334.065    24725.654   -364.99586   -223690.19    54872    111.70508 3.1522279e-05 
    4000    92.194289    92.194289    122.14595    17015.317    25800.981    25018.494     226.4755   -223680.72    54872    107.60527 3.3029082e-05 
    4100    92.194289    92.194289    122.14619     17111.18    25944.551    25076.532     312.4585   -223674.68    54872    103.94031 3.4333858e-05 
    4200    92.194289    92.194289    122.17595    16723.044    25638.574    24800.361   -269.80457   -223656.05    54872    98.502614 3.7766683e-05 
    4300    92.194289    92.194289     122.1764    16809.292     25576.96     24903.21   -52.293127   -223655.16    54872    95.458537 3.971359e-05 
    4400    92.194289    92.194289    122.17282    17024.114    25666.932     25073.66    331.75017   -223640.28    54872    90.503259 4.060224e-05 
    4500    92.194289    92.194289    122.20682    16562.983    25236.517    24713.716    -261.2833   -223622.42    54872    85.252807 4.1783068e-05 
    4600    92.194289    92.194289    122.20684    16665.154    25234.348    24802.672   -41.557756   -223591.94    54872    78.362447 4.4152677e-05 
    4700    92.194289    92.194289    122.20117    16772.379    25243.648        24884    189.49076   -223579.02    54872    74.027171 4.855743e-05 
    4800    92.194289    92.194289    122.22092    16446.515    25011.276     24542.54   -214.26927   -223569.06    54872    69.693142 6.7456839e-05 
    4900    92.194289    92.194289    122.20317     16694.06    25297.441    24639.347    145.39081   -223576.47    54872    67.438446 6.9457504e-05 
    5000    92.194289    92.194289     122.2049    16567.816    25267.799    24525.909   -90.261372   -223573.35    54872     63.84011  7.05217e-05 
    5100    92.194289    92.194289    122.19514    16628.971    25356.969    24579.238   -49.294415   -223563.08    54872    59.285521 8.0225771e-05 
    5200    92.194289    92.194289    122.17805    16798.181    25507.857     24712.59    174.09709   -223558.15    54872    55.462654 8.6684585e-05 
    5300    92.194289    92.194289    122.18324    16619.883    25342.547    24534.591   -17.488424   -223557.97    54872    52.205535 0.00010167206 
    5400    92.194289    92.194289    122.18581    16498.326    25124.538    24424.847   -54.408886   -223551.98    54872    47.761994 0.00012939316 
    5500    92.194289    92.194289    122.18533    16437.375     24965.58    24338.415    8.1290651   -223559.85    54872    45.127074 0.00013505477 
    5600    92.194289    92.194289    122.17972    16373.112     24909.58    24188.048    21.707006   -223570.99    54872    42.094029 0.00032004778 
    5700    92.194289    92.194289    122.14839    16345.684    24763.336    24200.246    73.469571   -223610.85    54872    39.688725 0.00034429928 
    5800    92.194289    92.194289    122.12852    16249.029    24640.548    24094.463     12.07531   -223643.18    54872    36.563315 0.0003636461 
    5900    92.194289    92.194289    122.12124    16247.306    24743.825    23962.426    35.667171    -223680.1    54872    34.107496 0.00046731826 
    6000    92.194289    92.194289     122.1008    16241.817    24654.324    24073.289   -2.1606362   -223713.72    54872     30.47201 0.00043692865 
    6100    92.194289    92.194289    122.08945    16237.034    24702.221    24031.986   -23.104761   -223746.75    54872    27.988236 0.00051516809 
    6200    92.194289    92.194289    122.07962    16179.787    24594.843    23953.829   -9.3107817   -223779.38    54872    25.622515 0.0004771318 
    6300    92.194289    92.194289    122.07482    16175.051    24627.523    23905.681   -8.0519204   -223802.93    54872    23.578207 0.00041264563 
    6400    92.194289    92.194289    122.06505    16102.399    24512.047    23792.304    2.8475921   -223827.31    54872    21.349366 0.00053407811 
    6500    92.194289    92.194289    122.05625    16069.688    24423.133    23776.206     9.723766   -223849.57    54872    19.872052 0.00052843022 
    6600    92.194289    92.194289    122.05194    16077.624    24427.219    23804.501    1.1522836   -223868.81    54872    17.589068 0.00067428483 
    6700    92.194289    92.194289    122.05448    16006.395    24376.567    23639.107    3.5094478   -223883.02    54872    15.955008 0.00054315167 
    6800    92.194289    92.194289     122.0501    15927.436    24225.982    23559.499   -3.1735451   -223899.55    54872    14.673487 0.00082967446 
    6900    92.194289    92.194289    122.04056    15942.459    24281.523      23548.3   -2.4449146   -223913.75    54872    13.298882 0.00068451006 
    7000    92.194289    92.194289    122.03811    15912.379    24292.189    23440.633     4.314912   -223923.14    54872    12.632425 0.0004515754 
    7100    92.194289    92.194289    122.03091    15933.191    24319.824    23472.979    6.7706103   -223930.55    54872    11.776222 0.00090999578 
    7200    92.194289    92.194289    122.03463    15924.498    24277.661    23496.385  -0.55081472   -223937.46    54872    11.005836 0.00079481022 
    7300    92.194289    92.194289    122.03027    15889.766    24264.569    23404.591   0.13648945    -223945.6    54872    10.468608 0.00088619028 
    7400    92.194289    92.194289    122.03446    15880.071     24266.66    23372.769   0.78206595   -223950.61    54872    9.8638016 0.00082359037 
    7500    92.194289    92.194289    122.02928    15901.625    24337.053    23367.161   0.66083685    -223955.1    54872    9.7705103 0.00082707008 
    7600    92.194289    92.194289    122.02525    15896.512    24280.873    23408.045   0.61801005   -223957.43    54872    9.8222426 0.0010346998 
    7700    92.194289    92.194289    122.03094    15855.672    24176.369    23390.426    0.2206715   -223958.23    54872    10.007825 0.0011593223 
    7800    92.194289    92.194289    122.02859    15809.989    24132.653    23296.499   0.81610052    -223958.3    54872    10.021894  0.001178669 
    7900    92.194289    92.194289    122.02755    15856.865    24190.425    23379.071    1.0998073   -223960.26    54872    10.100226 0.0012807196 
    8000    92.194289    92.194289    122.02809    15886.971    24199.715    23462.053  -0.85458424   -223962.43    54872    9.9566995 0.0013036554 
    8100    92.194289    92.194289    122.02332     15883.83    24185.691    23466.082  -0.28099026    -223965.2    54872    9.8615988  0.001214787 
    8200    92.194289    92.194289    122.02468    15832.668     24130.15    23368.508  -0.65450664   -223965.49    54872    9.8337769 0.0012638448 
    8300    92.194289    92.194289    122.02719    15818.495    24122.949    23331.628   0.90759652   -223966.48    54872    10.197679 0.0013612536 
    8400    92.194289    92.194289    122.02961    15816.894    24114.565    23336.135 -0.019475704   -223968.23    54872     10.23853 0.0013696504 
    8500    92.194289    92.194289    122.03345    15770.832    24019.245    23295.415    -2.162532   -223972.25    54872    9.9844702 0.0008803519 
    8600    92.194289    92.194289    122.03068    15802.229    24063.352    23342.326    1.0086118   -223973.81    54872    9.6905168 0.0016891133 
    8700    92.194289    92.194289    122.02748    15831.583    24112.655     23382.81  -0.71485866   -223973.25    54872    9.8679753 0.0012842285 
    8800    92.194289    92.194289    122.02519    15831.168    24128.729    23368.802   -4.0260933   -223971.75    54872    10.182793 0.0014896766 
    8900    92.194289    92.194289    122.02583    15822.477    24050.975    23417.434  -0.97681373   -223973.77    54872    10.104222 0.0016969473 
    9000    92.194289    92.194289    122.02548    15795.295     24023.09    23353.016    9.7786758   -223977.69    54872      10.0278 0.00064464085 
    9100    92.194289    92.194289    122.02539    15807.342    24053.577    23362.391     6.057348   -223980.18    54872    9.7698909 0.0013883267 
    9200    92.194289    92.194289    122.03446    15784.619    24034.523    23353.109    -33.77411   -223980.19    54872    9.7909805 0.0015156111 
    9300    92.194289    92.194289    122.02493    15901.252    24174.298    23468.972    60.486818   -223977.26    54872    10.169177 0.0017284261 
    9400    92.194289    92.194289    122.02884     15796.02    24106.995    23297.169   -16.102648   -223977.31    54872    10.077099 0.0020531855 
    9500    92.194289    92.194289    122.02232    15891.648    24081.086    23424.203    169.65477   -223980.98    54872    9.8253287 0.0017599291 
    9600    92.194289    92.194289    122.04091    15614.405    23848.458    23242.663   -247.90589    -223980.5    54872    9.9285585 0.0019591715 
    9700    92.194289    92.194289    122.03709    15719.791    23946.466    23325.899   -112.99269   -223978.33    54872    10.172189  0.001927494 
    9800    92.194289    92.194289     122.0376    15727.568    23979.957    23288.262   -85.515381   -223980.18    54872    9.9422661 0.0019519949 
    9900    92.194289    92.194289    122.03247    15745.715    24024.664    23229.738   -17.257731   -223982.73    54872    9.8154412 0.0013284352 
   10000    92.194289    92.194289    122.02636     15845.56    24029.007    23467.685    39.988439   -223981.97    54872    9.9876633 0.0022604275 
   10100    92.194289    92.194289    122.03232    15827.724    24060.701    23396.574    25.895417   -223980.37    54872    10.099542 0.0022087442 
   10200    92.194289    92.194289    122.02913    15808.265     24049.89     23360.71    14.193022   -223982.23    54872    9.9119523 0.0021389201 
   10300    92.194289    92.194289    122.02871    15798.837    24006.827    23382.724    6.9591715   -223982.07    54872    10.004138  0.001885059 
   10400    92.194289    92.194289    122.02902    15815.868    24093.852    23349.173    4.5797265   -223980.73    54872    10.030938 0.0024248315 
   10500    92.194289    92.194289    122.03208    15779.187    23956.443    23397.685   -16.567565   -223982.07    54872    9.9340609 0.0022436565 
Loop time of 1274.07 on 32 procs for 10000 steps with 54872 atoms

Performance: 1.522 ns/day, 15.774 hours/ns, 7.849 timesteps/s
99.0% CPU use with 8 MPI tasks x 4 OpenMP threads

MPI task timing breakdown:
Section |  min time  |  avg time  |  max time  |%varavg| %total
---------------------------------------------------------------
Pair    | 827.05     | 836.4      | 845.62     |  22.6 | 65.65
Neigh   | 9.541      | 9.6255     | 9.7024     |   1.6 |  0.76
Comm    | 7.4116     | 16.665     | 25.971     | 160.4 |  1.31
Output  | 2.1329     | 2.136      | 2.1567     |   0.5 |  0.17
Modify  | 395.17     | 396.04     | 397.13     |   3.4 | 31.08
Other   |            | 13.21      |            |       |  1.04

Nlocal:    6859 ave 6890 max 6829 min
Histogram: 2 0 0 0 2 1 1 1 0 1
Nghost:    3908.12 ave 3927 max 3885 min
Histogram: 1 0 3 0 0 0 1 0 0 3
Neighs:    0 ave 0 max 0 min
Histogram: 8 0 0 0 0 0 0 0 0 0
FullNghs:  105198 ave 105865 max 104571 min
Histogram: 2 0 0 2 0 0 2 1 0 1

Total # of neighbors = 841588
Ave neighs/atom = 15.3373
Neighbor list builds = 633
Dangerous builds = 0

#undump 1
next i
jump recoil1.in loop

### last equilibrium step - check
run 1000
Per MPI rank memory allocation (min/avg/max) = 7.413 | 7.413 | 7.414 Mbytes
Step Lx Ly Lz Press Pxx Pyy Pzz PotEng Atoms Temp Dt 
   10500    92.194289    92.194289    122.03208    15779.188    23956.445    23397.686   -16.565978   -223982.07    54872    9.9340609 0.0022436565 
   10600    92.194289    92.194289    122.03526    15786.883    24010.418    23354.807   -4.5770028   -223981.78    54872     10.00292 0.0022127154 
   10700    92.194289    92.194289    122.03151    15771.267    24018.246    23296.451  -0.89403694   -223981.31    54872    10.055496 0.0025606036 
   10800    92.194289    92.194289    122.02703    15860.676    24100.261    23416.769     64.99743   -223982.13    54872    9.9294076 0.0022913441 
   10900    92.194289    92.194289    122.03094    15876.213    24135.509    23385.649    107.48165   -223981.96    54872    10.045615  0.002161989 
   11000    92.194289    92.194289    122.03819    15657.096    23942.267    23225.585   -196.56424   -223981.89    54872    10.082188 0.0025672236 
   11100    92.194289    92.194289    122.03565    15734.664    24059.122    23286.698   -141.82856   -223981.67    54872    9.9110779 0.0027221286 
   11200    92.194289    92.194289    122.03213    15777.214    24078.769    23298.917   -46.045047   -223982.05    54872    10.061878 0.0024757779 
   11300    92.194289    92.194289    122.03105    15869.862    24097.141    23427.109    85.337266   -223982.25    54872     9.947925 0.0028260861 
   11400    92.194289    92.194289    122.03431    15784.332    23994.496    23315.631    42.869116    -223981.9    54872    9.9816835  0.002429565 
   11500    92.194289    92.194289    122.03602    15784.526    24053.394    23324.084   -23.900428   -223982.39    54872     10.02727 0.0023532991 
Loop time of 127.459 on 32 procs for 1000 steps with 54872 atoms

Performance: 1.595 ns/day, 15.045 hours/ns, 7.846 timesteps/s
99.1% CPU use with 8 MPI tasks x 4 OpenMP threads

MPI task timing breakdown:
Section |  min time  |  avg time  |  max time  |%varavg| %total
---------------------------------------------------------------
Pair    | 83.222     | 84.369     | 85.211     |   7.6 | 66.19
Neigh   | 0.64233    | 0.6491     | 0.65583    |   0.6 |  0.51
Comm    | 0.64418    | 1.4994     | 2.6618     |  57.6 |  1.18
Output  | 0.073851   | 0.074149   | 0.076155   |   0.3 |  0.06
Modify  | 39.728     | 39.885     | 40.04      |   1.7 | 31.29
Other   |            | 0.9818     |            |       |  0.77

Nlocal:    6859 ave 6889 max 6833 min
Histogram: 1 1 0 1 1 2 0 0 1 1
Nghost:    3909.75 ave 3936 max 3885 min
Histogram: 1 0 3 0 0 1 1 0 0 2
Neighs:    0 ave 0 max 0 min
Histogram: 8 0 0 0 0 0 0 0 0 0
FullNghs:  105198 ave 105868 max 104687 min
Histogram: 1 2 1 0 0 2 0 0 1 1

Total # of neighbors = 841588
Ave neighs/atom = 15.3373
Neighbor list builds = 42
Dangerous builds = 0

variable j loop ${i_max}
variable j loop 1
label reset

velocity ${j} set 0.0 0.0 0.0 units box
velocity 1 set 0.0 0.0 0.0 units box

next j
jump recoil1.in reset

write_data recoil1.dat

run 100
Per MPI rank memory allocation (min/avg/max) = 7.413 | 7.413 | 7.414 Mbytes
Step Lx Ly Lz Press Pxx Pyy Pzz PotEng Atoms Temp Dt 
   11500    92.194289    92.194289    122.03602    15784.522     24053.39    23324.082   -23.905449   -223982.39    54872    10.026784 0.0023532991 
   11600    92.194289    92.194289    122.02916    15791.723    23979.175    23393.114    2.8813896   -223982.54    54872    9.9418208 0.0026733886 
Loop time of 12.7397 on 32 procs for 100 steps with 54872 atoms

Performance: 1.813 ns/day, 13.237 hours/ns, 7.849 timesteps/s
99.3% CPU use with 8 MPI tasks x 4 OpenMP threads

MPI task timing breakdown:
Section |  min time  |  avg time  |  max time  |%varavg| %total
---------------------------------------------------------------
Pair    | 8.3386     | 8.4278     | 8.5078     |   2.3 | 66.15
Neigh   | 0.061012   | 0.06163    | 0.062189   |   0.1 |  0.48
Comm    | 0.062118   | 0.1459     | 0.23652    |  17.7 |  1.15
Output  | 0.014584   | 0.014616   | 0.014828   |   0.1 |  0.11
Modify  | 3.9436     | 3.9728     | 3.9951     |   1.0 | 31.18
Other   |            | 0.1169     |            |       |  0.92

Nlocal:    6859 ave 6889 max 6836 min
Histogram: 2 1 0 0 2 1 0 0 1 1
Nghost:    3906.62 ave 3930 max 3881 min
Histogram: 1 1 0 2 0 0 2 0 0 2
Neighs:    0 ave 0 max 0 min
Histogram: 8 0 0 0 0 0 0 0 0 0
FullNghs:  105258 ave 105939 max 104691 min
Histogram: 1 1 2 0 0 2 0 0 1 1

Total # of neighbors = 842068
Ave neighs/atom = 15.346
Neighbor list builds = 4
Dangerous builds = 0

Total wall time: 0:24:35
