LAMMPS data file via write_data, version 23 Oct 2017, timestep = 30000

10648 atoms
1 atom types

0.0000000000000000e+00 5.9752000000000002e+01 xlo xhi
0.0000000000000000e+00 5.9752000000000002e+01 ylo yhi
0.0000000000000000e+00 5.9752000000000002e+01 zlo zhi

Masses

1 28.09

Atoms # atomic

3853 1 2.5296922922526049e-01 3.6609819904602353e-01 1.0095252063289661e+00 1 1 0
1721 1 3.5407654329697551e+00 1.8299727361467286e+00 8.8322196310264334e-01 0 0 1
827 1 1.6935409243098437e+01 1.1267332230070466e+00 1.6778441885651056e+00 0 1 0
3388 1 1.9058822782919748e+01 1.8275123534042412e+00 1.0246432679791853e+00 0 1 0
861 1 2.6529163464918952e+01 2.0331273812189266e+00 1.3190406843608498e+00 0 1 -1
4212 1 2.7778685880024781e+01 1.1725624558267010e-01 2.4944067365880765e-01 -2 0 0
145 1 3.8494790619699110e+01 1.4246002532618389e+00 1.3540272712861121e+00 0 -1 0
2386 1 4.4963613444465196e+01 3.7186193794173240e-02 1.5840866718286928e+00 -1 0 0
9398 1 4.6867761917236898e+01 1.3837586030104803e+00 1.0028872187494511e+00 0 1 1
8834 1 5.0562552872075571e+01 3.8114139884778553e-01 2.0226731890109444e+00 0 1 1
1658 1 5.1698659086998560e+01 1.2807053639172910e+00 1.2463990968834215e-02 -1 0 1
3660 1 5.3986996638506092e+01 1.0834220011678883e+00 9.7782063480339243e-01 0 0 0
7115 1 5.7827053667384504e+01 9.3967619678279546e-01 1.9734470136287652e+00 0 -1 1
5833 1 5.3912857422755298e+00 3.3192761155094517e+00 1.4684787387655218e+00 0 0 1
699 1 7.7423291410112789e+00 2.5525281850296593e+00 1.2430979752421512e+00 1 1 0
2898 1 1.1787058405557683e+01 3.0216585669099154e+00 1.1566242358435506e+00 0 1 1
9707 1 1.5980977823510379e+01 3.9223861154029600e+00 1.1271374655329036e+00 0 0 0
8981 1 1.9492606828248267e+01 3.9400843169601893e+00 1.9244075293570659e+00 0 1 0
5260 1 2.2303711957311908e+01 2.0967435686377440e+00 9.0607642431927571e-01 1 0 0
3500 1 2.7478095178947243e+01 3.9293071834728921e+00 4.3282832330289611e-01 0 0 0
9823 1 2.9611359183569299e+01 3.9655989577443638e+00 1.7687079696997079e+00 0 0 2
5274 1 3.1236512677158142e+01 2.2921961445839241e+00 1.6658406030368651e+00 0 0 0
2966 1 3.2791068460234214e+01 4.0282840929587298e+00 2.0345555993699169e+00 0 0 0
5244 1 3.6569889650812321e+01 2.9383495585920785e+00 1.5867733079127193e+00 -1 0 1
10183 1 4.1011874084387983e+01 2.3175569235045481e+00 1.2986444175013825e+00 0 0 1
2484 1 5.6573595106410501e+01 2.8777067357326951e+00 1.2323838388141475e+00 0 1 0
8836 1 4.9054767362672791e-01 4.4017271016057959e+00 3.1372546972259407e-01 1 0 2
8511 1 5.4053051798594947e+00 5.3277353697044196e+00 1.5157327973948365e-01 1 1 1
4842 1 7.9914655285559553e+00 5.2818126622699157e+00 8.4167041484005634e-01 0 0 1
6343 1 1.2365563072737526e+01 5.1996270882780866e+00 1.7818817671506249e+00 0 0 1
10195 1 1.4642487662637079e+01 5.8215529248837408e+00 1.4766766116899670e+00 1 0 1
8283 1 1.8069509482739058e+01 4.9851462546028138e+00 4.2704161254061829e-01 0 1 0
865 1 2.1634914440790570e+01 4.3743665557693108e+00 8.6560861511006126e-01 0 1 0
254 1 2.4595243452422928e+01 4.7069300493502331e+00 1.5205944674422348e-01 0 0 0
1385 1 3.0654952033357780e+01 6.0018515197058209e+00 7.6529856102900129e-01 0 0 0
8798 1 3.7348024238852716e+01 6.0272393870155963e+00 8.1429463362228183e-01 0 0 0
3041 1 4.2140673101563785e+01 5.3418490311784570e+00 1.4079037193743440e+00 0 1 0
6686 1 4.4511056119376548e+01 5.8948292335048063e+00 1.7229060224866390e+00 0 0 0
6772 1 4.8383210077323078e+01 4.9987013982549096e+00 1.1746058835038113e+00 0 0 2
1032 1 5.0698513186973194e+01 4.6477253439291877e+00 1.5091112439067720e+00 0 1 0
5727 1 5.7882017332738336e+01 4.6980860935224937e+00 7.3184611095930996e-02 -1 1 0
3688 1 2.4658041778267612e+00 7.9623906539016751e+00 6.6690620787432972e-02 0 1 -1
6601 1 4.5159427153440106e+00 7.1511988537700866e+00 1.3498475658845952e+00 1 1 0
3684 1 9.0019058449666538e+00 7.5272687811550876e+00 5.5380532160474627e-01 0 2 0
7540 1 1.1460169288899253e+01 7.1447912648118139e+00 5.9481627711926077e-01 0 0 1
217 1 1.8270974800473947e+01 7.3602888256205619e+00 7.0297499359885185e-01 0 0 0
9862 1 2.0601777727569910e+01 8.0699074661748806e+00 4.0279137188797326e-01 0 -1 1
553 1 2.6668539414062412e+01 6.3099865638397938e+00 2.8382296579335836e-01 0 1 0
8525 1 2.9248842458198038e+01 7.7056064501158765e+00 1.8604364058508489e+00 -1 0 1
2012 1 3.3086408240232934e+01 6.4633645196375928e+00 1.2693503825080756e+00 0 0 0
138 1 4.0796819578040449e+01 7.3763645756863347e+00 1.4452720717242511e+00 0 0 0
5883 1 4.7182868585522279e+01 7.3795393815762091e+00 1.5477469521986459e-01 0 0 1
7782 1 4.9691371747885150e+01 7.7330505865056951e+00 2.4731699830765376e-02 -1 1 0
9322 1 5.1319013494486590e+01 6.8495798023354775e+00 1.8116043343413053e+00 0 0 1
5309 1 5.3762713055935592e+01 6.7978112752088711e+00 1.3705718537073501e+00 -1 0 0
4573 1 5.7218222489138789e+01 7.9991068525633038e+00 1.0086666733051519e+00 0 1 1
5048 1 1.2692437627438125e+00 9.5219738331157586e+00 1.4314899471898110e+00 0 0 0
2045 1 5.5571956411373087e+00 9.1880578907044175e+00 7.2876018907245543e-01 0 0 1
3863 1 8.7024751544934915e+00 9.6475555028506825e+00 1.6635505244645579e+00 1 0 0
6539 1 1.7240366530278170e+01 1.0193188774372308e+01 9.6749479810523467e-02 0 0 0
8851 1 2.5401122856761294e+01 8.4465206307848408e+00 8.8765886179573694e-01 -1 0 1
3943 1 2.7232706464084085e+01 9.8835125831970920e+00 1.3226886783970733e+00 0 0 1
10213 1 3.2676939608972305e+01 9.3643313494348259e+00 1.6091464461078986e+00 -2 0 1
6145 1 3.6576899627998664e+01 8.3214550792482793e+00 8.4961364223434277e-01 0 0 0
3677 1 4.1863605594599854e+01 9.5479374199917242e+00 1.1649661386239267e+00 0 0 -1
4376 1 4.6161052160755069e+01 9.9700288620205413e+00 1.5997328739473673e+00 0 1 1
2764 1 5.4981060670645547e+01 8.7217187221775916e+00 1.8991941321203880e+00 -1 0 0
7342 1 3.0203448347961817e+00 1.1300028693834012e+01 1.8130361457231718e+00 0 0 0
593 1 4.7668492692055864e+00 1.1290733265467027e+01 1.6605589337061133e-02 1 1 0
5530 1 1.1779293901658326e+01 1.1919071369296383e+01 1.4972909097270339e+00 0 0 2
272 1 1.3468335645171623e+01 1.0471445158567276e+01 7.1468605369050964e-01 0 1 0
988 1 1.5872580567933419e+01 1.1168143080050122e+01 1.9822641364249509e+00 0 0 0
9487 1 1.9211441341237165e+01 1.1719361176901451e+01 1.9127494633145368e+00 0 0 1
1467 1 2.1834855830938071e+01 1.1771891561843740e+01 2.0774763798199164e-01 0 1 0
6206 1 2.3875357960648099e+01 1.0554847226579072e+01 8.2688349474855372e-01 -1 1 1
3410 1 2.7504263278465931e+01 1.2300473807822847e+01 2.0920635446789775e+00 1 0 0
6550 1 3.1047766135615152e+01 1.0787276293518026e+01 5.3350529339877750e-01 0 1 1
5956 1 3.5407357096703549e+01 1.2286939754218887e+01 1.3463081743313954e+00 1 1 1
8850 1 3.9911013778986586e+01 1.0921428710830714e+01 6.5865668477792794e-01 0 0 0
893 1 4.8453911751336179e+01 1.0632885768663755e+01 2.0999908486883774e+00 0 0 -1
6991 1 5.0085398115861459e+01 1.1642903806038627e+01 6.7361664802820120e-01 0 0 0
4421 1 5.2070343877745351e+01 1.1308014680557568e+01 1.9133132870051996e+00 -1 1 0
10426 1 5.3882195979200198e+01 1.0361168286618337e+01 6.6461621387742287e-01 0 1 1
2223 1 5.7376809253882961e+01 1.1236105546241774e+01 6.2784503272199532e-01 -1 0 1
6696 1 8.7944923602247527e-01 1.2687018768259181e+01 1.1227286867634632e+00 0 0 1
10118 1 6.5212874424396077e+00 1.2808221403261511e+01 4.9676535547877199e-01 1 0 1
4940 1 1.8302795287315622e+01 1.3961082247159196e+01 1.4787744703739054e+00 0 0 1
9637 1 2.2007705764558604e+01 1.3526728193816995e+01 1.9119388422861476e+00 0 1 2
4359 1 2.9836274704829858e+01 1.2674141738710068e+01 2.1306671930699617e+00 -1 0 1
1113 1 3.3512706659144833e+01 1.3808062294970103e+01 1.0351978892841538e+00 -1 0 0
7946 1 3.7195679322639052e+01 1.3522995152843494e+01 2.1313273785341185e+00 -1 0 1
7572 1 4.1999495486295828e+01 1.4240775920420679e+01 1.4501032677497412e+00 -1 1 1
1331 1 4.3524923669202373e+01 1.2508462948205233e+01 1.7998625939559698e-01 0 0 0
6632 1 5.5098737871762253e+01 1.2366306931212055e+01 9.5399984923582826e-01 0 1 0
6754 1 5.8290940244276726e+01 1.3400668228203694e+01 3.5894647300509769e-01 0 1 0
4714 1 1.5086824391953622e+00 1.4882650249715168e+01 8.3697388915739290e-01 -1 0 0
9336 1 6.8492152666711341e+00 1.5008774134035898e+01 1.6874024099919278e+00 0 0 1
9012 1 1.0036861331965003e+01 1.6384850864603038e+01 2.1321495200720364e-01 1 0 2
10236 1 1.2358232534988820e+01 1.6072540871810265e+01 8.8112026376489405e-01 0 1 0
6382 1 1.4294257107038867e+01 1.4446271039613407e+01 3.9296983600163637e-01 1 0 0
9256 1 2.0368823057620151e+01 1.5159895886053585e+01 1.0411138108575742e+00 0 0 1
438 1 2.4102750028256356e+01 1.4696965383842297e+01 2.1068693222853203e+00 0 0 0
395 1 2.7192935162192580e+01 1.4503472316662915e+01 7.4404339051522073e-01 0 0 1
8220 1 3.6909980130465783e+01 1.6202020297692961e+01 4.9588447450784179e-01 0 -1 1
5768 1 4.2194719698505438e+01 1.6450637072539354e+01 5.7386865720589364e-01 0 1 0
968 1 4.7908107183445566e+01 1.4543676803014103e+01 2.0990363501307856e+00 0 0 -1
4489 1 5.1108352339461312e+01 1.5193351603702673e+01 2.2310292397163478e-01 -1 1 0
7126 1 5.3191686398991692e+01 1.4930329101450466e+01 1.1889674083025721e+00 0 0 0
1580 1 5.7599584818030898e+01 1.6015616221432360e+01 2.0390536751327342e+00 0 1 0
7588 1 6.8821303694350433e-01 1.8384344609643147e+01 3.3029979540030885e-01 1 1 1
7214 1 2.1345330439001725e-01 1.6665253632210572e+01 1.9504459163885033e+00 2 0 0
4219 1 4.1827466964073468e+00 1.7160093289448820e+01 1.3482836188711140e+00 0 1 1
7060 1 6.0869733857709951e+00 1.6631787368154338e+01 1.7016600133870816e-01 0 -1 1
732 1 7.4527103427250116e+00 1.8517170055394807e+01 4.6952530553861499e-01 0 1 0
6548 1 1.6733026710606790e+01 1.7455626695741621e+01 3.0801460689497784e-01 0 0 0
7256 1 2.0742962761222120e+01 1.8043430255495803e+01 9.1935154532674390e-01 0 0 1
2024 1 2.6149953109205402e+01 1.7604019875539120e+01 2.0510241641447573e+00 0 0 0
10574 1 2.4793679364156016e+01 1.6759333476783976e+01 3.8608861668358418e-01 0 1 1
7388 1 3.3425474524010326e+01 1.7693825374387131e+01 4.8784486735483423e-01 0 1 1
8559 1 4.5519527566917105e+01 1.6886329197794858e+01 4.7123366690652990e-01 -1 0 1
10387 1 5.4088897909835843e+01 1.7028671495631997e+01 2.0417285989542782e+00 -1 1 1
6529 1 5.5328038351135419e+01 1.8180772326270201e+01 1.5045660866782742e-01 -1 0 1
9358 1 8.4196274164474616e-01 2.0567458395827519e+01 1.2515749562145744e+00 1 0 1
1608 1 1.1984645834643146e+01 2.0160774434503885e+01 1.7256116204240592e+00 0 1 0
5002 1 1.5411945078681393e+01 2.0444110979226384e+01 1.7228700531026078e+00 0 1 1
9578 1 1.4696894584243637e+01 1.8631959755144472e+01 3.2002822852504742e-01 1 0 1
4264 1 2.0914549386885163e+01 2.0376156299580916e+01 1.8944868798455581e+00 0 0 1
1420 1 2.7254845600749661e+01 1.9515222770573853e+01 1.3048077075986484e+00 0 1 0
6024 1 3.5428093645095146e+01 1.9095691161322840e+01 3.1062621322873363e-01 0 0 1
5938 1 3.9124732795544624e+01 1.8636389309210344e+01 3.4243556466102543e-01 1 0 0
8326 1 4.1204860767238131e+01 2.0146354616190273e+01 1.9254419069146806e+00 0 0 1
10536 1 4.4761698175942080e+01 1.8987019026943734e+01 1.1812546827826245e+00 0 0 1
8788 1 4.8648529927042894e+01 1.8859324200462204e+01 1.0837144270423396e+00 0 0 1
2229 1 5.2294254590524865e+01 1.8681269084723908e+01 1.6963423200871151e+00 -1 0 0
7896 1 5.5493133674777916e+01 2.0467379311576831e+01 1.6447314174650300e+00 0 -1 1
3009 1 3.1764080819630531e+00 2.0769262593907591e+01 1.0912146429039726e+00 1 0 0
10275 1 6.7887470087018107e+00 2.2062575645219454e+01 1.7585568337738990e+00 0 0 1
5063 1 1.3529198073187160e+01 2.1943512102322526e+01 1.8700870475719091e+00 0 -1 1
1117 1 1.7503411980274961e+01 2.0887775949253630e+01 7.9858191610556717e-01 0 0 1
16 1 2.1768907678294660e+01 2.1681445181390504e+01 2.6154901453327944e-01 0 0 0
7559 1 2.5654570298335138e+01 2.1184207714894253e+01 7.5871536816543883e-01 1 0 1
3308 1 3.0406584511213271e+01 2.0949427217323258e+01 1.5320015310209147e+00 -1 -1 0
8492 1 3.3859563833134004e+01 2.2267935194339952e+01 9.7732825547862590e-01 0 0 1
9070 1 3.8775390330155545e+01 2.1178258658654645e+01 3.4206246179961880e-01 -1 0 0
8848 1 4.9605287970849218e+01 2.2537232258541220e+01 6.9748895121670107e-01 -1 0 1
8875 1 5.3058076566647514e+01 2.0877479592261555e+01 1.9569381137924173e+00 -1 -1 2
9240 1 5.9026619623411563e+01 2.2097063059253379e+01 5.2408583305915454e-02 0 1 1
3689 1 1.7315997459542656e+00 2.4022025752063161e+01 1.1202343327009920e-01 0 0 0
7859 1 3.3689374228178042e+00 2.3083711990819616e+01 1.4604998061609411e+00 1 0 0
1447 1 5.5030473446192634e+00 2.3902773438261963e+01 8.6008242284898095e-01 0 0 0
9122 1 9.1138787119031104e+00 2.2747011878734927e+01 1.7533991490762353e+00 1 0 0
2318 1 2.3177355669290058e+01 2.3385889544135804e+01 1.6008392202207100e+00 -1 1 1
7939 1 2.8576356850944446e+01 2.4533594561545211e+01 2.9257137921964910e-01 0 0 0
5625 1 3.0369714354454473e+01 2.3498183271498917e+01 1.6039308757120658e+00 1 0 0
8195 1 3.2397051636509651e+01 2.4045850445335592e+01 4.5446170950796622e-01 -1 0 1
5485 1 3.5680625847985347e+01 2.3364998138004669e+01 1.9535544624686150e+00 0 0 0
4073 1 4.0352737605851395e+01 2.2959183748314615e+01 3.3021479723228953e-01 -1 0 0
9104 1 4.4359983408722364e+01 2.3582289922537676e+01 4.2417986179333572e-01 -1 1 0
85 1 4.7259765624193058e+01 2.2730910877489077e+01 1.1076884103995752e+00 0 0 0
10464 1 5.5630986909750838e+01 2.4204928155262238e+01 6.0760720696467763e-01 0 1 0
2954 1 5.9456488183524229e+01 2.4375129430782557e+01 1.4628906681241693e+00 -1 0 0
8144 1 1.1548575155881489e+01 2.6624964964762267e+01 6.2397080810543293e-01 0 0 0
7716 1 1.5582196629770069e+01 2.5402669323636314e+01 1.8371994660674804e+00 0 0 0
4479 1 1.8392204038428179e+01 2.5152269302671566e+01 5.4242112755412120e-01 0 1 0
8845 1 2.6819147458666105e+01 2.5812010281245989e+01 1.4893813397651612e+00 0 0 0
2855 1 3.3634475371377185e+01 2.5989302078471709e+01 1.3637104664147370e+00 0 1 0
7634 1 3.5773306392318354e+01 2.5258294740904219e+01 4.7551341931863822e-01 0 1 1
780 1 3.9019932371010462e+01 2.6763905803420670e+01 1.8924320784622781e+00 0 1 0
4172 1 4.2948348595003075e+01 2.6500760814996493e+01 1.7808870980383269e+00 0 0 0
4044 1 4.6684803825234702e+01 2.5167061738138358e+01 1.2614143590776519e+00 0 0 0
7443 1 5.0401792414263582e+01 2.5838592472708505e+01 8.4269123177653316e-01 0 0 0
2515 1 5.3822411554301823e+01 2.5600378082431412e+01 1.2036895143734663e+00 -1 0 1
7507 1 5.7633713874437369e+01 2.5537376479029778e+01 3.1409532592560596e-01 0 0 0
10564 1 1.2880736661528083e+00 2.7842573930356203e+01 1.2401835108352639e+00 0 1 1
6903 1 6.0843641324537563e+00 2.6868388184207575e+01 1.8074791071806706e+00 0 0 1
2088 1 8.1748965947347969e+00 2.8111716213669382e+01 1.5006997502913053e+00 1 -1 1
4214 1 1.2899122218691307e+01 2.8621966224222600e+01 3.1884525409784381e-01 0 0 0
5290 1 1.6527863009001923e+01 2.7563995098184321e+01 1.8051427260059951e+00 0 0 0
4197 1 2.0067567910369636e+01 2.6847138853577199e+01 1.8629172409277388e+00 0 0 1
522 1 2.3980536404498729e+01 2.7731939997216674e+01 1.5423736515408379e+00 1 0 1
9077 1 2.7816302115417507e+01 2.8023426768650392e+01 1.7838293269438610e+00 -1 0 1
3392 1 2.9731348037864993e+01 2.8050769940303713e+01 3.7974261691451439e-01 1 -1 1
3404 1 3.2719062956090099e+01 2.7970031684814252e+01 3.6175643445044864e-01 1 0 0
4092 1 3.9883242415372877e+01 2.8777625530566834e+01 1.2474712731879409e+00 -1 0 0
8221 1 4.7275687509661360e+01 2.8623377692385546e+01 4.8537206094794877e-01 0 -1 1
7415 1 5.4058855718028170e+01 2.7874948920030960e+01 4.2410222143934284e-01 0 1 0
5315 1 5.7505789801483225e+01 2.7798545086989481e+01 1.2515308670392919e+00 -1 0 1
802 1 3.4552857745651968e+00 2.9351804537177422e+01 1.3129927609155887e+00 0 1 0
2572 1 1.8468653399950842e+01 3.0814373339536900e+01 1.6559968576278503e+00 0 -1 0
4007 1 2.5937332305036133e+01 2.9414549582670038e+01 1.8675678268958567e+00 -1 0 1
10132 1 3.1821922459981757e+01 3.0760190082739875e+01 2.1339102475361038e+00 -1 0 0
2175 1 3.4420858274205266e+01 2.9746231621334800e+01 3.8756454918451572e-01 0 -1 0
9418 1 3.7636579407821884e+01 2.9738499464432188e+01 1.7150801256902481e+00 0 0 1
1464 1 4.5070360470551009e+01 2.9548332059509953e+01 2.9631169180647554e-01 0 -1 0
4245 1 5.1661421386828899e+01 3.0340927355422409e+01 1.7654487845758895e+00 0 0 1
4059 1 5.5636015061079135e+01 2.9075838419316337e+01 1.9258628217856926e+00 -1 0 0
4168 1 1.6189063140579043e+00 3.1543091195550975e+01 1.3885250980236161e+00 0 0 0
6472 1 4.9768266839768156e+00 3.1709348105811817e+01 2.1056694717886870e+00 0 0 1
1892 1 8.6294742256047297e+00 3.2090538849721788e+01 1.6387633212556021e+00 0 0 0
587 1 1.3022577669815693e+01 3.2306862490114867e+01 9.0370421803584833e-01 0 0 0
8175 1 1.6543273550270694e+01 3.2267125033941426e+01 1.8593373742777184e+00 0 0 1
5963 1 2.0135944082103393e+01 3.2406063403167629e+01 1.3230885184366332e+00 0 0 1
9188 1 2.2189553504513452e+01 3.1045479397856351e+01 1.5202975024165242e+00 1 0 1
2597 1 2.4276587192557681e+01 3.2010379175645703e+01 7.8452092736750900e-01 0 0 -1
8340 1 2.7187297690933626e+01 3.1699968034084545e+01 1.5753564777061981e+00 0 1 1
2061 1 3.7738187922934991e+01 3.2055148672396456e+01 1.8979422336584240e+00 0 0 0
580 1 3.9427737649671634e+01 3.2864703300352595e+01 4.2753852574115853e-01 0 0 0
2343 1 4.1450887550423595e+01 3.1362538303170226e+01 4.5532197889557519e-01 0 -1 0
4831 1 4.3205936203885393e+01 3.2913295129601664e+01 2.0866481849583265e-01 0 0 0
8835 1 4.5274268246097101e+01 3.1789404804511861e+01 7.2124452428372332e-01 0 0 1
4076 1 4.9613902095780873e+01 3.1536414701277071e+01 1.4357905567906999e+00 -1 0 0
6293 1 5.3223249474990112e+01 3.2080187840405117e+01 1.4962236697114399e+00 0 0 0
2351 1 5.5230632909565628e+01 3.1296794083195095e+01 7.3240085010460898e-01 0 0 0
6689 1 5.7478420936415311e+01 3.1280326338079306e+01 1.9984634496407203e+00 -1 0 0
6440 1 5.9140602562950967e+01 3.1263774992600069e+01 3.7120804830709087e-01 -1 0 0
9742 1 6.5159515006778266e+00 3.3387025496702513e+01 1.3617663277778980e+00 1 -1 2
3598 1 1.1066505424568449e+01 3.3971830596113357e+01 6.0709168327933327e-01 0 0 0
3389 1 1.6696780275392804e+01 3.4561780577524075e+01 1.1653476384970554e+00 0 -1 0
4020 1 3.0842117353478049e+01 3.3773769798535206e+01 5.0247683853255753e-01 0 0 0
3221 1 3.5438843697772057e+01 3.3029745684080417e+01 1.7400135488061506e+00 -1 0 0
4958 1 4.0350462536645345e+01 3.4942256208079449e+01 1.3267480184450133e+00 0 -1 1
7898 1 4.2394157971869916e+01 3.3989455437490207e+01 2.1136224166392399e+00 0 0 1
5949 1 5.0526057662696701e+01 3.3755083396839453e+01 1.1789926282152796e+00 -1 0 0
1093 1 5.6280218426090315e+01 3.3476257600008168e+01 1.9042617681269311e-01 0 0 -1
8925 1 5.7963917507310825e+01 3.4731033306440544e+01 1.4601905287815073e+00 0 0 1
6630 1 2.9686489756167583e-01 3.6567384358439952e+01 8.9876803606417899e-01 1 0 1
1161 1 2.4061239289327525e+00 3.5301229400183878e+01 1.0721706909135558e+00 0 -1 0
8058 1 7.5590832446900391e+00 3.5415413353942171e+01 1.9973885419757628e-02 0 0 1
5741 1 1.1005928101971580e+01 3.6201512891361546e+01 1.6723198557136338e+00 0 1 1
156 1 1.4715076726221657e+01 3.5677834381256758e+01 1.5939553519831773e+00 0 0 0
437 1 1.9755216708021752e+01 3.6401879452560657e+01 1.0360604990080959e+00 1 0 0
6765 1 2.3464435196852442e+01 3.6900467971026586e+01 8.1597002586822298e-01 0 0 0
6760 1 2.6377908858756026e+01 3.6247109283705782e+01 4.0435020026813884e-01 0 1 2
425 1 2.8640604953424429e+01 3.6654748779548669e+01 1.1718926068097704e+00 0 0 0
3545 1 3.3858663675802781e+01 3.6659527386860681e+01 1.9739807645768486e+00 -1 0 1
3303 1 3.5944682325465379e+01 3.5456527709796141e+01 1.3373070667766702e+00 0 0 0
2202 1 4.6895631333281621e+01 3.5904669248922481e+01 9.7113193354682426e-01 -1 0 0
2553 1 5.1416053394913384e+01 3.6498853169919862e+01 1.2664916562028474e+00 0 0 -1
10038 1 5.3725206174763258e+01 3.6857415042777653e+01 5.2484839986656939e-01 -1 1 1
2552 1 6.4143523400811253e-01 3.8991074660069991e+01 4.0275897952721695e-01 1 -1 0
10040 1 4.3909473729362825e+00 3.8203398149100160e+01 2.8280990702455283e-01 0 -1 1
6900 1 8.7632387233563236e+00 3.7153197213061496e+01 1.3804525172975000e+00 0 0 0
3903 1 1.2012615159495898e+01 3.8247161428922404e+01 7.2725112349515575e-01 0 -1 1
9591 1 1.5156387695134891e+01 3.7973287610531393e+01 1.7098356557846763e+00 1 -1 1
1231 1 1.9007101897774074e+01 3.8502688559810956e+01 6.3226760985225361e-01 0 -1 0
7041 1 2.9446725573754826e+01 3.8806622756564742e+01 1.3433311041601192e+00 -1 0 0
5477 1 3.6620083452996830e+01 3.8990497165955148e+01 7.8111555241964703e-01 -1 0 1
10284 1 4.1565895768239685e+01 3.8383543255795281e+01 8.5759397235806656e-01 0 0 1
4835 1 4.3622329707410870e+01 3.7575926842783076e+01 2.0562291503359846e+00 0 0 0
3046 1 4.7552214189096482e+01 3.8229127969491373e+01 1.4601996535910478e+00 0 0 0
3260 1 4.9869001877075114e+01 3.8344771166838242e+01 1.8182806076431139e+00 0 -1 1
464 1 5.5264402304683031e+01 3.8891375821428475e+01 2.5960305005861367e-01 -1 0 0
9998 1 5.7674425735291699e+01 3.8504138198744776e+01 1.8669129762144418e-01 0 -1 2
3932 1 5.0979693006796474e+00 4.0255437401180068e+01 1.1638877733236763e+00 2 0 0
1590 1 9.8868098069131687e+00 3.9594182231658642e+01 7.1336801086616186e-01 -1 0 0
726 1 1.3862324251510252e+01 3.9983466292837953e+01 5.5395782698273865e-01 0 0 0
8973 1 2.2624713986266961e+01 3.9792307005830267e+01 5.9395637691475023e-01 1 0 1
2314 1 2.7591842848359658e+01 3.9951702597941079e+01 4.5441341774122912e-01 -1 0 0
1439 1 3.3128860973373015e+01 4.0858059308657751e+01 3.1957328402437424e-01 -1 0 1
1430 1 3.9228243108315141e+01 3.9378000820448619e+01 5.4099738631793470e-01 1 0 0
10178 1 4.4764888675372291e+01 4.0749391081202454e+01 1.1064306366707422e+00 0 0 1
3185 1 5.1027996910539237e+01 4.0478981872411175e+01 1.7893221879324266e+00 -1 0 0
10274 1 3.6522852249707123e+00 4.2111321432315492e+01 1.2925794416357756e+00 1 0 1
5662 1 9.3060213098753284e+00 4.1963217699937410e+01 1.3808093111127260e+00 0 0 0
2430 1 1.1176589538481451e+01 4.3213295752565955e+01 1.1061760716224682e+00 0 0 1
4584 1 1.3618444100782728e+01 4.2137432963830825e+01 1.3803444590426182e+00 1 1 0
9581 1 1.7328205161635893e+01 4.1469398967015835e+01 1.0022911594894759e+00 1 0 1
8345 1 2.4735588863165777e+01 4.2463256509131419e+01 1.1513567685224568e+00 -1 0 1
3423 1 3.2426240107109713e+01 4.3122099560349163e+01 1.4689759920129780e-01 0 0 0
1291 1 3.7070633649322104e+01 4.1259002070780646e+01 2.1061616988155447e+00 1 0 0
2827 1 3.9609535063831288e+01 4.1622856378265787e+01 1.8596046710566310e+00 -1 0 0
9181 1 4.1460479455510530e+01 4.2196862219539341e+01 1.0598750835106288e-01 0 1 0
1576 1 4.3022249281618990e+01 4.3027378403664031e+01 1.7207325385644630e+00 0 0 0
10473 1 4.5577287295264604e+01 4.3146552931415521e+01 1.5193686356459437e+00 0 0 1
5769 1 4.7544182935284233e+01 4.2045115543984039e+01 3.0548322228731228e-01 0 0 1
4463 1 4.9373804532448204e+01 4.2214801116738549e+01 1.8435328932265540e+00 0 0 1
2788 1 5.3519815596818567e+01 4.1615330079803599e+01 5.8769732008854458e-01 -1 1 1
6246 1 5.8045664247658216e+01 4.2482440837346260e+01 1.0479169562977759e+00 1 0 0
6331 1 2.1201970028834174e-01 4.3497465562980985e+01 2.0654544083279562e+00 1 -1 1
3544 1 1.4429394120154664e+00 4.4758311656117520e+01 5.5003485284989750e-01 0 0 0
5702 1 5.7399881447503631e+00 4.3982363361367355e+01 6.6907154175970124e-02 1 0 0
2336 1 1.4525830371822378e+01 4.4020154350830026e+01 7.1819746127231215e-02 0 -1 1
3462 1 1.9373311282726412e+01 4.4528958635883306e+01 1.4947415107238162e+00 1 -1 0
3642 1 2.1794333258895165e+01 4.4482794735344442e+01 6.1728647570032547e-01 0 0 0
9976 1 2.5279277763342598e+01 4.4859578627234463e+01 1.4711199286384888e+00 0 0 1
2477 1 2.8088344904649048e+01 4.3922158074223226e+01 8.1553626019193859e-02 0 0 0
564 1 3.0741362636783688e+01 4.4842896235530823e+01 2.1288986462912667e+00 0 0 1
10384 1 3.6516804045880079e+01 4.4227330545191258e+01 1.4627613617941646e+00 0 0 1
6140 1 3.8864728019334116e+01 4.3949851635980117e+01 1.5539770894778833e+00 0 0 0
6051 1 5.0856810903580914e+01 4.3965600825996475e+01 1.0903276419387165e+00 0 0 1
6238 1 5.3010310679167212e+01 4.3693868553502448e+01 1.6175675089902182e+00 0 -1 0
684 1 5.4741888784339302e+01 4.5067349568896148e+01 6.5627326271226027e-01 0 0 0
9835 1 3.1198386670710292e+00 4.5918022874595600e+01 1.8076845135816146e+00 0 -1 2
10149 1 8.1747057639421623e+00 4.7122493051483730e+01 1.0365913034316829e+00 0 0 0
8534 1 1.0941035238655427e+01 4.5698280814715901e+01 5.3692901427807849e-01 1 0 1
10285 1 1.5848649311149403e+01 4.6141428448707053e+01 1.0672539546164941e+00 1 -1 1
1822 1 1.7986234294763257e+01 4.5844872638617687e+01 1.3496843323313790e-01 1 0 0
849 1 4.7441296712653838e+01 4.5348279593501232e+01 3.9793745899991267e-01 0 0 0
3722 1 5.0381540855736993e+01 4.6103425998560624e+01 2.1180297521342419e+00 0 -1 0
4793 1 5.3761742170294887e+01 4.7202182638384670e+01 3.7509399868499049e-01 0 0 1
7817 1 8.0647184917295089e-01 4.8189508461170782e+01 1.1694278757926950e+00 1 -1 1
512 1 3.9800249749757457e+00 4.7453667642410721e+01 1.4258970726693451e-01 1 -1 0
3104 1 4.3209582371751312e+00 4.9289781156419579e+01 1.9804405024353768e+00 0 -1 1
8489 1 8.9020772131098411e+00 4.9393039548197535e+01 1.1135695410861981e+00 -1 0 0
459 1 1.0928075252589858e+01 4.9273974178622751e+01 4.3041479475244948e-02 0 0 0
1622 1 1.2429249533538590e+01 4.7563192312726372e+01 7.8437157171272820e-01 1 0 1
8165 1 1.7613033170327608e+01 4.9115923370282154e+01 1.8924772325281076e+00 0 -1 0
3679 1 1.9221173498584086e+01 4.7806741565542204e+01 6.8406263138089751e-01 0 1 1
10201 1 2.1625500275564420e+01 4.7643534469638034e+01 1.1767895489427593e+00 0 0 1
2667 1 2.4926480765422500e+01 4.7868311898707482e+01 1.0384035120566393e+00 0 0 -1
3608 1 2.7313876222389421e+01 4.7509941883749306e+01 1.0090161530086346e+00 0 0 0
4215 1 2.8749644296042415e+01 4.9384573744207337e+01 1.0932604634341643e+00 0 -1 0
4163 1 3.0963032413239507e+01 4.8349755469438840e+01 1.1793391363785330e+00 1 -1 0
5021 1 3.3308812663480261e+01 4.7744401122011979e+01 3.0182101264680050e-01 -1 -1 0
2020 1 3.6078895030477966e+01 4.8014346375978604e+01 5.2173888574523242e-01 0 -1 0
6977 1 4.1257072963850099e+01 4.8252622740973592e+01 2.0018253441656255e+00 0 0 0
1589 1 4.5304933588011913e+01 4.8823133771515373e+01 1.4715943008527326e+00 -1 0 0
4277 1 4.8124931399872359e+01 4.8991182678982128e+01 2.9764761786386995e-01 -1 0 1
1765 1 5.5085540031477393e+01 4.9147693206542968e+01 6.7364401643439187e-01 -1 0 1
4996 1 5.8282873445906134e+01 4.7397388148243479e+01 6.7733289036424682e-01 0 0 0
10323 1 6.4135577394462862e-01 5.0720695461335012e+01 7.2956890903338789e-01 1 0 0
6612 1 1.2331009262649767e+01 5.1151147873783529e+01 4.4116111995010879e-02 1 0 1
937 1 1.6960717814729765e+01 5.1157349065334252e+01 9.0443721753725592e-01 0 0 0
7591 1 2.2262080433807800e+01 4.9934114429315137e+01 1.0765348271549982e+00 0 0 1
3169 1 2.4615430114305187e+01 5.0126893472564191e+01 8.4458597486838460e-01 0 -1 0
8266 1 3.1842336485341576e+01 5.0600806045357288e+01 1.6200276351589946e+00 1 0 1
5295 1 3.4225197046050560e+01 5.0147671589637483e+01 9.8542987603480092e-01 0 -1 0
1277 1 3.7868264065269337e+01 4.9853960652008539e+01 7.2066685435554723e-01 0 -1 0
9778 1 4.0364729140058472e+01 5.0124851180197098e+01 5.6384623303379888e-01 0 0 1
6042 1 5.1582347681171854e+01 5.0833508590792668e+01 4.3396408848849910e-01 0 0 0
1424 1 5.8210105823773027e+01 5.1225561316533003e+01 8.4524173832378990e-01 0 -1 0
1304 1 2.8493807370943465e+00 5.3422214695194739e+01 3.7059783879777919e-01 0 0 0
6685 1 4.6030306652951118e+00 5.1773436330035899e+01 1.7071493365993908e+00 1 0 1
2798 1 7.0487371414816442e+00 5.2150959319125100e+01 1.8902064890235524e+00 0 1 0
5058 1 1.0355001301524677e+01 5.3028846232254338e+01 1.9193868995832140e+00 0 -1 1
9896 1 1.9370658367040797e+01 5.2265361432367932e+01 7.2347270131443941e-01 0 -1 1
5190 1 3.1192765812384110e+01 5.2349966554857595e+01 1.3045197859719501e-01 0 0 1
10375 1 3.4825564672808362e+01 5.2402749235746022e+01 4.1861074369752821e-01 1 0 1
9451 1 3.7057443717639295e+01 5.2091478240661488e+01 1.0725762043268334e+00 1 -2 0
7088 1 4.1179366286301182e+01 5.2113955997232395e+01 1.7367374705930023e+00 -1 -1 1
4952 1 4.8375711199541435e+01 5.2221035552157481e+01 1.0294786146963757e+00 -1 0 0
7153 1 5.0566805423995248e+01 5.2813840681128411e+01 8.1404111474047658e-01 0 0 2
3132 1 7.4229466352326723e+00 5.4594077435042784e+01 1.8182330308050334e+00 0 -1 0
10480 1 1.4862157989389418e+01 5.4112799435897472e+01 1.7346496564611309e+00 0 0 1
8569 1 2.0086951687570561e+01 5.4414351350463861e+01 1.7329866271512556e-01 -1 0 1
9900 1 2.2448410072284691e+01 5.3609757948703816e+01 1.2505780082932183e-01 0 -1 2
2236 1 2.6354846796952394e+01 5.3680408404991987e+01 2.0736084627258737e+00 -1 0 0
4992 1 2.6054977279149064e+01 5.5315035012664104e+01 1.8143830739561242e-01 1 -1 1
8524 1 2.8770366183937476e+01 5.3659266399463824e+01 1.7480665455852096e+00 1 0 0
9537 1 3.1567469997409653e+01 5.4432646136713338e+01 1.3065179327540812e+00 1 0 1
10533 1 3.3809409214875487e+01 5.3876067130881317e+01 2.0126503893950995e+00 0 1 0
2331 1 3.8583889338423496e+01 5.5233045830747315e+01 2.1028513441976213e+00 0 0 0
3913 1 3.9938638579837772e+01 5.3892116823899293e+01 6.7839099935282499e-01 -1 0 1
133 1 4.3825619412738234e+01 5.4371026155322042e+01 3.3235485395521555e-02 0 -1 0
8668 1 4.7292248707310442e+01 5.4280341703980191e+01 1.4106023056856287e+00 -2 0 1
10199 1 5.3378010202996819e+01 5.5364256196576271e+01 1.6926164580343217e+00 0 0 2
3032 1 5.4617235043667243e+01 5.3849274337202843e+01 1.9703033670774592e-01 1 0 1
3129 1 1.3263675742657877e-01 5.6370823568704054e+01 7.9457530804548004e-01 0 0 0
1584 1 3.7908253262760652e+00 5.5780566593233729e+01 6.7407094759752317e-01 1 0 0
3681 1 1.0221523305664135e+01 5.7451111149508364e+01 1.8912234985128027e+00 1 1 0